# LAMMPS data file written by OVITO Basic 3.4.2
23123 atoms
2 atom types
0.0 129.750273 xlo xhi
0.0 224.734065 ylo yhi
-1.2 15.6 zlo zhi
Atoms  # charge

1 1 0.0 0.581 211.22 3.0
2 1 0.0 0.558 208.764 3.0
3 1 0.0 0.535 206.308 3.0
4 1 0.0 0.511 203.852 3.0
5 1 0.0 0.488 201.396 3.0
6 1 0.0 0.465 198.941 3.0
7 1 0.0 0.442 196.485 3.0
8 1 0.0 0.418 194.029 3.0
9 1 0.0 0.395 191.573 3.0
10 1 0.0 0.372 189.117 3.0
11 1 0.0 0.349 186.661 3.0
12 1 0.0 0.325 184.205 3.0
13 1 0.0 0.302 181.749 3.0
14 1 0.0 0.279 179.293 3.0
15 1 0.0 0.256 176.838 3.0
16 1 0.0 0.232 174.382 3.0
17 1 0.0 0.209 171.926 3.0
18 1 0.0 0.186 169.47 3.0
19 1 0.0 0.163 167.014 3.0
20 1 0.0 0.139 164.558 3.0
21 1 0.0 0.116 162.102 3.0
22 1 0.0 0.093 159.646 3.0
23 1 0.0 0.07 157.19 3.0
24 1 0.0 0.046 154.734 3.0
25 1 0.0 0.023 152.279 3.0
26 1 0.0 0.0 149.823 3.0
27 1 0.0 2.836 224.707 3.0
28 1 0.0 2.115 223.486 3.0
29 1 0.0 2.813 222.251 3.0
30 1 0.0 2.092 221.03 3.0
31 1 0.0 2.789 219.795 3.0
32 1 0.0 2.069 218.574 3.0
33 1 0.0 2.766 217.34 3.0
34 1 0.0 2.046 216.118 3.0
35 1 0.0 2.743 214.884 3.0
36 1 0.0 2.022 213.662 3.0
37 1 0.0 2.72 212.428 3.0
38 1 0.0 1.999 211.207 3.0
39 1 0.0 2.696 209.972 3.0
40 1 0.0 1.976 208.751 3.0
41 1 0.0 2.673 207.516 3.0
42 1 0.0 1.953 206.295 3.0
43 1 0.0 2.65 205.06 3.0
44 1 0.0 1.929 203.839 3.0
45 1 0.0 2.627 202.604 3.0
46 1 0.0 1.906 201.383 3.0
47 1 0.0 2.603 200.148 3.0
48 1 0.0 1.883 198.927 3.0
49 1 0.0 2.58 197.692 3.0
50 1 0.0 1.86 196.471 3.0
51 1 0.0 2.557 195.237 3.0
52 1 0.0 1.836 194.015 3.0
53 1 0.0 2.534 192.781 3.0
54 1 0.0 1.813 191.559 3.0
55 1 0.0 2.51 190.325 3.0
56 1 0.0 1.79 189.104 3.0
57 1 0.0 2.487 187.869 3.0
58 1 0.0 1.767 186.648 3.0
59 1 0.0 2.464 185.413 3.0
60 1 0.0 1.743 184.192 3.0
61 1 0.0 2.441 182.957 3.0
62 1 0.0 1.72 181.736 3.0
63 1 0.0 2.417 180.501 3.0
64 1 0.0 1.697 179.28 3.0
65 1 0.0 2.394 178.045 3.0
66 1 0.0 1.674 176.824 3.0
67 1 0.0 2.371 175.589 3.0
68 1 0.0 1.65 174.368 3.0
69 1 0.0 2.348 173.134 3.0
70 1 0.0 1.627 171.912 3.0
71 1 0.0 2.324 170.678 3.0
72 1 0.0 1.604 169.456 3.0
73 1 0.0 2.301 168.222 3.0
74 1 0.0 1.581 167.001 3.0
75 1 0.0 2.278 165.766 3.0
76 1 0.0 1.557 164.545 3.0
77 1 0.0 2.255 163.31 3.0
78 1 0.0 1.534 162.089 3.0
79 1 0.0 2.231 160.854 3.0
80 1 0.0 1.511 159.633 3.0
81 1 0.0 2.208 158.398 3.0
82 1 0.0 1.488 157.177 3.0
83 1 0.0 2.185 155.942 3.0
84 1 0.0 1.464 154.721 3.0
85 1 0.0 2.162 153.486 3.0
86 1 0.0 1.441 152.265 3.0
87 1 0.0 2.138 151.031 3.0
88 1 0.0 1.418 149.809 3.0
89 1 0.0 2.115 148.575 3.0
90 1 0.0 1.395 147.353 3.0
91 1 0.0 2.092 146.119 3.0
92 1 0.0 1.371 144.898 3.0
93 1 0.0 2.069 143.663 3.0
94 1 0.0 1.348 142.442 3.0
95 1 0.0 2.046 141.207 3.0
96 1 0.0 1.325 139.986 3.0
97 1 0.0 2.022 138.751 3.0
98 1 0.0 1.302 137.53 3.0
99 1 0.0 1.999 136.295 3.0
100 1 0.0 1.278 135.074 3.0
101 1 0.0 1.976 133.839 3.0
102 1 0.0 1.255 132.618 3.0
103 1 0.0 1.953 131.383 3.0
104 1 0.0 1.232 130.162 3.0
105 1 0.0 1.929 128.928 3.0
106 1 0.0 1.209 127.706 3.0
107 1 0.0 1.906 126.472 3.0
108 1 0.0 1.185 125.25 3.0
109 1 0.0 1.883 124.016 3.0
110 1 0.0 1.162 122.795 3.0
111 1 0.0 1.86 121.56 3.0
112 1 0.0 1.139 120.339 3.0
113 1 0.0 1.836 119.104 3.0
114 1 0.0 1.116 117.883 3.0
115 1 0.0 1.813 116.648 3.0
116 1 0.0 1.092 115.427 3.0
117 1 0.0 1.79 114.192 3.0
118 1 0.0 1.069 112.971 3.0
119 1 0.0 1.767 111.736 3.0
120 1 0.0 1.046 110.515 3.0
121 1 0.0 1.743 109.28 3.0
122 1 0.0 1.023 108.059 3.0
123 1 0.0 1.72 106.825 3.0
124 1 0.0 1.0 105.603 3.0
125 1 0.0 1.697 104.369 3.0
126 1 0.0 0.976 103.147 3.0
127 1 0.0 1.674 101.913 3.0
128 1 0.0 0.953 100.691 3.0
129 1 0.0 1.65 99.457 3.0
130 1 0.0 0.93 98.236 3.0
131 1 0.0 1.627 97.001 3.0
132 1 0.0 0.907 95.78 3.0
133 1 0.0 1.604 94.545 3.0
134 1 0.0 0.883 93.324 3.0
135 1 0.0 1.581 92.089 3.0
136 1 0.0 0.86 90.868 3.0
137 1 0.0 1.557 89.633 3.0
138 1 0.0 0.837 88.412 3.0
139 1 0.0 1.534 87.177 3.0
140 1 0.0 0.814 85.956 3.0
141 1 0.0 1.511 84.721 3.0
142 1 0.0 0.79 83.5 3.0
143 1 0.0 1.488 82.266 3.0
144 1 0.0 0.767 81.044 3.0
145 1 0.0 1.464 79.81 3.0
146 1 0.0 0.744 78.588 3.0
147 1 0.0 1.441 77.354 3.0
148 1 0.0 0.721 76.133 3.0
149 1 0.0 1.418 74.898 3.0
150 1 0.0 0.697 73.677 3.0
151 1 0.0 1.395 72.442 3.0
152 1 0.0 0.674 71.221 3.0
153 1 0.0 1.371 69.986 3.0
154 1 0.0 0.651 68.765 3.0
155 1 0.0 1.348 67.53 3.0
156 1 0.0 0.628 66.309 3.0
157 1 0.0 1.325 65.074 3.0
158 1 0.0 0.604 63.853 3.0
159 1 0.0 1.302 62.618 3.0
160 1 0.0 0.581 61.397 3.0
161 1 0.0 1.278 60.163 3.0
162 1 0.0 0.558 58.941 3.0
163 1 0.0 1.255 57.707 3.0
164 1 0.0 0.535 56.485 3.0
165 1 0.0 1.232 55.251 3.0
166 1 0.0 0.511 54.03 3.0
167 1 0.0 1.209 52.795 3.0
168 1 0.0 0.488 51.574 3.0
169 1 0.0 1.185 50.339 3.0
170 1 0.0 0.465 49.118 3.0
171 1 0.0 1.162 47.883 3.0
172 1 0.0 0.442 46.662 3.0
173 1 0.0 1.139 45.427 3.0
174 1 0.0 0.418 44.206 3.0
175 1 0.0 1.116 42.971 3.0
176 1 0.0 0.395 41.75 3.0
177 1 0.0 1.092 40.515 3.0
178 1 0.0 0.372 39.294 3.0
179 1 0.0 1.069 38.06 3.0
180 1 0.0 0.349 36.838 3.0
181 1 0.0 1.046 35.604 3.0
182 1 0.0 0.325 34.382 3.0
183 1 0.0 1.023 33.148 3.0
184 1 0.0 0.302 31.927 3.0
185 1 0.0 1.0 30.692 3.0
186 1 0.0 0.279 29.471 3.0
187 1 0.0 0.976 28.236 3.0
188 1 0.0 0.256 27.015 3.0
189 1 0.0 0.953 25.78 3.0
190 1 0.0 0.232 24.559 3.0
191 1 0.0 0.93 23.324 3.0
192 1 0.0 0.209 22.103 3.0
193 1 0.0 0.907 20.868 3.0
194 1 0.0 0.186 19.647 3.0
195 1 0.0 0.883 18.412 3.0
196 1 0.0 0.163 17.191 3.0
197 1 0.0 0.86 15.957 3.0
198 1 0.0 0.139 14.735 3.0
199 1 0.0 0.837 13.501 3.0
200 1 0.0 0.116 12.279 3.0
201 1 0.0 0.814 11.045 3.0
202 1 0.0 0.093 9.824 3.0
203 1 0.0 0.79 8.589 3.0
204 1 0.0 0.07 7.368 3.0
205 1 0.0 0.767 6.133 3.0
206 1 0.0 0.046 4.912 3.0
207 1 0.0 0.744 3.677 3.0
208 1 0.0 0.023 2.456 3.0
209 1 0.0 0.721 1.221 3.0
210 1 0.0 0.0 0.0 3.0
211 1 0.0 4.254 224.694 3.0
212 1 0.0 4.951 223.459 3.0
213 1 0.0 4.23 222.238 3.0
214 1 0.0 4.928 221.003 3.0
215 1 0.0 4.207 219.782 3.0
216 1 0.0 4.905 218.547 3.0
217 1 0.0 4.184 217.326 3.0
218 1 0.0 4.881 216.091 3.0
219 1 0.0 4.161 214.87 3.0
220 1 0.0 4.858 213.636 3.0
221 1 0.0 4.138 212.414 3.0
222 1 0.0 4.835 211.18 3.0
223 1 0.0 4.114 209.958 3.0
224 1 0.0 4.812 208.724 3.0
225 1 0.0 4.091 207.503 3.0
226 1 0.0 4.788 206.268 3.0
227 1 0.0 4.068 205.047 3.0
228 1 0.0 4.765 203.812 3.0
229 1 0.0 4.045 202.591 3.0
230 1 0.0 4.742 201.356 3.0
231 1 0.0 4.021 200.135 3.0
232 1 0.0 4.719 198.9 3.0
233 1 0.0 3.998 197.679 3.0
234 1 0.0 4.695 196.444 3.0
235 1 0.0 3.975 195.223 3.0
236 1 0.0 4.672 193.988 3.0
237 1 0.0 3.952 192.767 3.0
238 1 0.0 4.649 191.533 3.0
239 1 0.0 3.928 190.311 3.0
240 1 0.0 4.626 189.077 3.0
241 1 0.0 3.905 187.855 3.0
242 1 0.0 4.602 186.621 3.0
243 1 0.0 3.882 185.4 3.0
244 1 0.0 4.579 184.165 3.0
245 1 0.0 3.859 182.944 3.0
246 1 0.0 4.556 181.709 3.0
247 1 0.0 3.835 180.488 3.0
248 1 0.0 4.533 179.253 3.0
249 1 0.0 3.812 178.032 3.0
250 1 0.0 4.509 176.797 3.0
251 1 0.0 3.789 175.576 3.0
252 1 0.0 4.486 174.341 3.0
253 1 0.0 3.766 173.12 3.0
254 1 0.0 4.463 171.885 3.0
255 1 0.0 3.742 170.664 3.0
256 1 0.0 4.44 169.43 3.0
257 1 0.0 3.719 168.208 3.0
258 1 0.0 4.416 166.974 3.0
259 1 0.0 3.696 165.752 3.0
260 1 0.0 4.393 164.518 3.0
261 1 0.0 3.673 163.297 3.0
262 1 0.0 4.37 162.062 3.0
263 1 0.0 3.649 160.841 3.0
264 1 0.0 4.347 159.606 3.0
265 1 0.0 3.626 158.385 3.0
266 1 0.0 4.323 157.15 3.0
267 1 0.0 3.603 155.929 3.0
268 1 0.0 4.3 154.694 3.0
269 1 0.0 3.58 153.473 3.0
270 1 0.0 4.277 152.238 3.0
271 1 0.0 3.556 151.017 3.0
272 1 0.0 4.254 149.782 3.0
273 1 0.0 3.533 148.561 3.0
274 1 0.0 4.23 147.327 3.0
275 1 0.0 3.51 146.105 3.0
276 1 0.0 4.207 144.871 3.0
277 1 0.0 3.487 143.649 3.0
278 1 0.0 4.184 142.415 3.0
279 1 0.0 3.463 141.194 3.0
280 1 0.0 4.161 139.959 3.0
281 1 0.0 3.44 138.738 3.0
282 1 0.0 4.138 137.503 3.0
283 1 0.0 3.417 136.282 3.0
284 1 0.0 4.114 135.047 3.0
285 1 0.0 3.394 133.826 3.0
286 1 0.0 4.091 132.591 3.0
287 1 0.0 3.37 131.37 3.0
288 1 0.0 4.068 130.135 3.0
289 1 0.0 3.347 128.914 3.0
290 1 0.0 4.045 127.679 3.0
291 1 0.0 3.324 126.458 3.0
292 1 0.0 4.021 125.224 3.0
293 1 0.0 3.301 124.002 3.0
294 1 0.0 3.998 122.768 3.0
295 1 0.0 3.277 121.546 3.0
296 1 0.0 3.975 120.312 3.0
297 1 0.0 3.254 119.091 3.0
298 1 0.0 3.952 117.856 3.0
299 1 0.0 3.231 116.635 3.0
300 1 0.0 3.928 115.4 3.0
301 1 0.0 3.208 114.179 3.0
302 1 0.0 3.905 112.944 3.0
303 1 0.0 3.184 111.723 3.0
304 1 0.0 3.882 110.488 3.0
305 1 0.0 3.161 109.267 3.0
306 1 0.0 3.859 108.032 3.0
307 1 0.0 3.138 106.811 3.0
308 1 0.0 3.835 105.576 3.0
309 1 0.0 3.115 104.355 3.0
310 1 0.0 3.812 103.121 3.0
311 1 0.0 3.092 101.899 3.0
312 1 0.0 3.789 100.665 3.0
313 1 0.0 3.068 99.443 3.0
314 1 0.0 3.766 98.209 3.0
315 1 0.0 3.045 96.988 3.0
316 1 0.0 3.742 95.753 3.0
317 1 0.0 3.022 94.532 3.0
318 1 0.0 3.719 93.297 3.0
319 1 0.0 2.999 92.076 3.0
320 1 0.0 3.696 90.841 3.0
321 1 0.0 2.975 89.62 3.0
322 1 0.0 3.673 88.385 3.0
323 1 0.0 2.952 87.164 3.0
324 1 0.0 3.649 85.929 3.0
325 1 0.0 2.929 84.708 3.0
326 1 0.0 3.626 83.473 3.0
327 1 0.0 2.906 82.252 3.0
328 1 0.0 3.603 81.018 3.0
329 1 0.0 2.882 79.796 3.0
330 1 0.0 3.58 78.562 3.0
331 1 0.0 2.859 77.34 3.0
332 1 0.0 3.556 76.106 3.0
333 1 0.0 2.836 74.885 3.0
334 1 0.0 3.533 73.65 3.0
335 1 0.0 2.813 72.429 3.0
336 1 0.0 3.51 71.194 3.0
337 1 0.0 2.789 69.973 3.0
338 1 0.0 3.487 68.738 3.0
339 1 0.0 2.766 67.517 3.0
340 1 0.0 3.463 66.282 3.0
341 1 0.0 2.743 65.061 3.0
342 1 0.0 3.44 63.826 3.0
343 1 0.0 2.72 62.605 3.0
344 1 0.0 3.417 61.37 3.0
345 1 0.0 2.696 60.149 3.0
346 1 0.0 3.394 58.915 3.0
347 1 0.0 2.673 57.693 3.0
348 1 0.0 3.37 56.459 3.0
349 1 0.0 2.65 55.237 3.0
350 1 0.0 3.347 54.003 3.0
351 1 0.0 2.627 52.782 3.0
352 1 0.0 3.324 51.547 3.0
353 1 0.0 2.603 50.326 3.0
354 1 0.0 3.301 49.091 3.0
355 1 0.0 2.58 47.87 3.0
356 1 0.0 3.277 46.635 3.0
357 1 0.0 2.557 45.414 3.0
358 1 0.0 3.254 44.179 3.0
359 1 0.0 2.534 42.958 3.0
360 1 0.0 3.231 41.723 3.0
361 1 0.0 2.51 40.502 3.0
362 1 0.0 3.208 39.267 3.0
363 1 0.0 2.487 38.046 3.0
364 1 0.0 3.184 36.812 3.0
365 1 0.0 2.464 35.59 3.0
366 1 0.0 3.161 34.356 3.0
367 1 0.0 2.441 33.134 3.0
368 1 0.0 3.138 31.9 3.0
369 1 0.0 2.417 30.678 3.0
370 1 0.0 3.115 29.444 3.0
371 1 0.0 2.394 28.223 3.0
372 1 0.0 3.092 26.988 3.0
373 1 0.0 2.371 25.767 3.0
374 1 0.0 3.068 24.532 3.0
375 1 0.0 2.348 23.311 3.0
376 1 0.0 3.045 22.076 3.0
377 1 0.0 2.324 20.855 3.0
378 1 0.0 3.022 19.62 3.0
379 1 0.0 2.301 18.399 3.0
380 1 0.0 2.999 17.164 3.0
381 1 0.0 2.278 15.943 3.0
382 1 0.0 2.975 14.708 3.0
383 1 0.0 2.255 13.487 3.0
384 1 0.0 2.952 12.253 3.0
385 1 0.0 2.231 11.031 3.0
386 1 0.0 2.929 9.797 3.0
387 1 0.0 2.208 8.575 3.0
388 1 0.0 2.906 7.341 3.0
389 1 0.0 2.185 6.12 3.0
390 1 0.0 2.882 4.885 3.0
391 1 0.0 2.162 3.664 3.0
392 1 0.0 2.859 2.429 3.0
393 1 0.0 2.138 1.208 3.0
394 1 0.0 7.09 224.667 3.0
395 1 0.0 6.369 223.446 3.0
396 1 0.0 7.066 222.211 3.0
397 1 0.0 6.346 220.99 3.0
398 1 0.0 7.043 219.755 3.0
399 1 0.0 6.322 218.534 3.0
400 1 0.0 7.02 217.299 3.0
401 1 0.0 6.299 216.078 3.0
402 1 0.0 6.997 214.843 3.0
403 1 0.0 6.276 213.622 3.0
404 1 0.0 6.973 212.388 3.0
405 1 0.0 6.253 211.166 3.0
406 1 0.0 6.95 209.932 3.0
407 1 0.0 6.23 208.71 3.0
408 1 0.0 6.927 207.476 3.0
409 1 0.0 6.206 206.254 3.0
410 1 0.0 6.904 205.02 3.0
411 1 0.0 6.183 203.799 3.0
412 1 0.0 6.88 202.564 3.0
413 1 0.0 6.16 201.343 3.0
414 1 0.0 6.857 200.108 3.0
415 1 0.0 6.137 198.887 3.0
416 1 0.0 6.834 197.652 3.0
417 1 0.0 6.113 196.431 3.0
418 1 0.0 6.811 195.196 3.0
419 1 0.0 6.09 193.975 3.0
420 1 0.0 6.787 192.74 3.0
421 1 0.0 6.067 191.519 3.0
422 1 0.0 6.764 190.285 3.0
423 1 0.0 6.044 189.063 3.0
424 1 0.0 6.741 187.829 3.0
425 1 0.0 6.02 186.607 3.0
426 1 0.0 6.718 185.373 3.0
427 1 0.0 5.997 184.151 3.0
428 1 0.0 6.694 182.917 3.0
429 1 0.0 5.974 181.696 3.0
430 1 0.0 6.671 180.461 3.0
431 1 0.0 5.951 179.24 3.0
432 1 0.0 6.648 178.005 3.0
433 1 0.0 5.927 176.784 3.0
434 1 0.0 6.625 175.549 3.0
435 1 0.0 5.904 174.328 3.0
436 1 0.0 6.601 173.093 3.0
437 1 0.0 5.881 171.872 3.0
438 1 0.0 6.578 170.637 3.0
439 1 0.0 5.858 169.416 3.0
440 1 0.0 6.555 168.181 3.0
441 1 0.0 5.834 166.96 3.0
442 1 0.0 6.532 165.726 3.0
443 1 0.0 5.811 164.504 3.0
444 1 0.0 6.508 163.27 3.0
445 1 0.0 5.788 162.048 3.0
446 1 0.0 6.485 160.814 3.0
447 1 0.0 5.765 159.593 3.0
448 1 0.0 6.462 158.358 3.0
449 1 0.0 5.741 157.137 3.0
450 1 0.0 6.439 155.902 3.0
451 1 0.0 5.718 154.681 3.0
452 1 0.0 6.415 153.446 3.0
453 1 0.0 5.695 152.225 3.0
454 1 0.0 6.392 150.99 3.0
455 1 0.0 5.672 149.769 3.0
456 1 0.0 6.369 148.534 3.0
457 1 0.0 5.648 147.313 3.0
458 1 0.0 6.346 146.078 3.0
459 1 0.0 5.625 144.857 3.0
460 1 0.0 6.322 143.623 3.0
461 1 0.0 5.602 142.401 3.0
462 1 0.0 6.299 141.167 3.0
463 1 0.0 5.579 139.945 3.0
464 1 0.0 6.276 138.711 3.0
465 1 0.0 5.555 137.49 3.0
466 1 0.0 6.253 136.255 3.0
467 1 0.0 5.532 135.034 3.0
468 1 0.0 6.23 133.799 3.0
469 1 0.0 5.509 132.578 3.0
470 1 0.0 6.206 131.343 3.0
471 1 0.0 5.486 130.122 3.0
472 1 0.0 6.183 128.887 3.0
473 1 0.0 5.462 127.666 3.0
474 1 0.0 6.16 126.431 3.0
475 1 0.0 5.439 125.21 3.0
476 1 0.0 6.137 123.975 3.0
477 1 0.0 5.416 122.754 3.0
478 1 0.0 6.113 121.52 3.0
479 1 0.0 5.393 120.298 3.0
480 1 0.0 6.09 119.064 3.0
481 1 0.0 5.369 117.842 3.0
482 1 0.0 6.067 116.608 3.0
483 1 0.0 5.346 115.387 3.0
484 1 0.0 6.044 114.152 3.0
485 1 0.0 5.323 112.931 3.0
486 1 0.0 6.02 111.696 3.0
487 1 0.0 5.3 110.475 3.0
488 1 0.0 5.997 109.24 3.0
489 1 0.0 5.276 108.019 3.0
490 1 0.0 5.974 106.784 3.0
491 1 0.0 5.253 105.563 3.0
492 1 0.0 5.951 104.328 3.0
493 1 0.0 5.23 103.107 3.0
494 1 0.0 5.927 101.872 3.0
495 1 0.0 5.207 100.651 3.0
496 1 0.0 5.904 99.417 3.0
497 1 0.0 5.184 98.195 3.0
498 1 0.0 5.881 96.961 3.0
499 1 0.0 5.16 95.739 3.0
500 1 0.0 5.858 94.505 3.0
501 1 0.0 5.137 93.284 3.0
502 1 0.0 5.834 92.049 3.0
503 1 0.0 5.114 90.828 3.0
504 1 0.0 5.811 89.593 3.0
505 1 0.0 5.091 88.372 3.0
506 1 0.0 5.788 87.137 3.0
507 1 0.0 5.067 85.916 3.0
508 1 0.0 5.765 84.681 3.0
509 1 0.0 5.044 83.46 3.0
510 1 0.0 5.741 82.225 3.0
511 1 0.0 5.021 81.004 3.0
512 1 0.0 5.718 79.769 3.0
513 1 0.0 4.998 78.548 3.0
514 1 0.0 5.695 77.314 3.0
515 1 0.0 4.974 76.092 3.0
516 1 0.0 5.672 74.858 3.0
517 1 0.0 4.951 73.636 3.0
518 1 0.0 5.648 72.402 3.0
519 1 0.0 4.928 71.181 3.0
520 1 0.0 5.625 69.946 3.0
521 1 0.0 4.905 68.725 3.0
522 1 0.0 5.602 67.49 3.0
523 1 0.0 4.881 66.269 3.0
524 1 0.0 5.579 65.034 3.0
525 1 0.0 4.858 63.813 3.0
526 1 0.0 5.555 62.578 3.0
527 1 0.0 4.835 61.357 3.0
528 1 0.0 5.532 60.122 3.0
529 1 0.0 4.812 58.901 3.0
530 1 0.0 5.509 57.666 3.0
531 1 0.0 4.788 56.445 3.0
532 1 0.0 5.486 55.211 3.0
533 1 0.0 4.765 53.989 3.0
534 1 0.0 5.462 52.755 3.0
535 1 0.0 4.742 51.533 3.0
536 1 0.0 5.439 50.299 3.0
537 1 0.0 4.719 49.078 3.0
538 1 0.0 5.416 47.843 3.0
539 1 0.0 4.695 46.622 3.0
540 1 0.0 5.393 45.387 3.0
541 1 0.0 4.672 44.166 3.0
542 1 0.0 5.369 42.931 3.0
543 1 0.0 4.649 41.71 3.0
544 1 0.0 5.346 40.475 3.0
545 1 0.0 4.626 39.254 3.0
546 1 0.0 5.323 38.019 3.0
547 1 0.0 4.602 36.798 3.0
548 1 0.0 5.3 35.563 3.0
549 1 0.0 4.579 34.342 3.0
550 1 0.0 5.276 33.108 3.0
551 1 0.0 4.556 31.886 3.0
552 1 0.0 5.253 30.652 3.0
553 1 0.0 4.533 29.43 3.0
554 1 0.0 5.23 28.196 3.0
555 1 0.0 4.509 26.975 3.0
556 1 0.0 5.207 25.74 3.0
557 1 0.0 4.486 24.519 3.0
558 1 0.0 5.184 23.284 3.0
559 1 0.0 4.463 22.063 3.0
560 1 0.0 5.16 20.828 3.0
561 1 0.0 4.44 19.607 3.0
562 1 0.0 5.137 18.372 3.0
563 1 0.0 4.416 17.151 3.0
564 1 0.0 5.114 15.916 3.0
565 1 0.0 4.393 14.695 3.0
566 1 0.0 5.091 13.46 3.0
567 1 0.0 4.37 12.239 3.0
568 1 0.0 5.067 11.005 3.0
569 1 0.0 4.347 9.783 3.0
570 1 0.0 5.044 8.549 3.0
571 1 0.0 4.323 7.327 3.0
572 1 0.0 5.021 6.093 3.0
573 1 0.0 4.3 4.872 3.0
574 1 0.0 4.998 3.637 3.0
575 1 0.0 4.277 2.416 3.0
576 1 0.0 4.974 1.181 3.0
577 1 0.0 8.507 224.654 3.0
578 1 0.0 9.205 223.419 3.0
579 1 0.0 8.484 222.198 3.0
580 1 0.0 9.182 220.963 3.0
581 1 0.0 8.461 219.742 3.0
582 1 0.0 9.158 218.507 3.0
583 1 0.0 8.438 217.286 3.0
584 1 0.0 9.135 216.051 3.0
585 1 0.0 8.414 214.83 3.0
586 1 0.0 9.112 213.595 3.0
587 1 0.0 8.391 212.374 3.0
588 1 0.0 9.089 211.139 3.0
589 1 0.0 8.368 209.918 3.0
590 1 0.0 9.065 208.684 3.0
591 1 0.0 8.345 207.462 3.0
592 1 0.0 9.042 206.228 3.0
593 1 0.0 8.321 205.006 3.0
594 1 0.0 9.019 203.772 3.0
595 1 0.0 8.298 202.551 3.0
596 1 0.0 8.996 201.316 3.0
597 1 0.0 8.275 200.095 3.0
598 1 0.0 8.972 198.86 3.0
599 1 0.0 8.252 197.639 3.0
600 1 0.0 8.949 196.404 3.0
601 1 0.0 8.229 195.183 3.0
602 1 0.0 8.926 193.948 3.0
603 1 0.0 8.205 192.727 3.0
604 1 0.0 8.903 191.492 3.0
605 1 0.0 8.182 190.271 3.0
606 1 0.0 8.879 189.036 3.0
607 1 0.0 8.159 187.815 3.0
608 1 0.0 8.856 186.581 3.0
609 1 0.0 8.136 185.359 3.0
610 1 0.0 8.833 184.125 3.0
611 1 0.0 8.112 182.903 3.0
612 1 0.0 8.81 181.669 3.0
613 1 0.0 8.089 180.448 3.0
614 1 0.0 8.786 179.213 3.0
615 1 0.0 8.066 177.992 3.0
616 1 0.0 8.763 176.757 3.0
617 1 0.0 8.043 175.536 3.0
618 1 0.0 8.74 174.301 3.0
619 1 0.0 8.019 173.08 3.0
620 1 0.0 8.717 171.845 3.0
621 1 0.0 7.996 170.624 3.0
622 1 0.0 8.693 169.389 3.0
623 1 0.0 7.973 168.168 3.0
624 1 0.0 8.67 166.933 3.0
625 1 0.0 7.95 165.712 3.0
626 1 0.0 8.647 164.478 3.0
627 1 0.0 7.926 163.256 3.0
628 1 0.0 8.624 162.022 3.0
629 1 0.0 7.903 160.8 3.0
630 1 0.0 8.6 159.566 3.0
631 1 0.0 7.88 158.345 3.0
632 1 0.0 8.577 157.11 3.0
633 1 0.0 7.857 155.889 3.0
634 1 0.0 8.554 154.654 3.0
635 1 0.0 7.833 153.433 3.0
636 1 0.0 8.531 152.198 3.0
637 1 0.0 7.81 150.977 3.0
638 1 0.0 8.507 149.742 3.0
639 1 0.0 7.787 148.521 3.0
640 1 0.0 8.484 147.286 3.0
641 1 0.0 7.764 146.065 3.0
642 1 0.0 8.461 144.83 3.0
643 1 0.0 7.74 143.609 3.0
644 1 0.0 8.438 142.375 3.0
645 1 0.0 7.717 141.153 3.0
646 1 0.0 8.414 139.919 3.0
647 1 0.0 7.694 138.697 3.0
648 1 0.0 8.391 137.463 3.0
649 1 0.0 7.671 136.242 3.0
650 1 0.0 8.368 135.007 3.0
651 1 0.0 7.647 133.786 3.0
652 1 0.0 8.345 132.551 3.0
653 1 0.0 7.624 131.33 3.0
654 1 0.0 8.321 130.095 3.0
655 1 0.0 7.601 128.874 3.0
656 1 0.0 8.298 127.639 3.0
657 1 0.0 7.578 126.418 3.0
658 1 0.0 8.275 125.183 3.0
659 1 0.0 7.554 123.962 3.0
660 1 0.0 8.252 122.727 3.0
661 1 0.0 7.531 121.506 3.0
662 1 0.0 8.229 120.272 3.0
663 1 0.0 7.508 119.05 3.0
664 1 0.0 8.205 117.816 3.0
665 1 0.0 7.485 116.594 3.0
666 1 0.0 8.182 115.36 3.0
667 1 0.0 7.461 114.138 3.0
668 1 0.0 8.159 112.904 3.0
669 1 0.0 7.438 111.683 3.0
670 1 0.0 8.136 110.448 3.0
671 1 0.0 7.415 109.227 3.0
672 1 0.0 8.112 107.992 3.0
673 1 0.0 7.392 106.771 3.0
674 1 0.0 8.089 105.536 3.0
675 1 0.0 7.368 104.315 3.0
676 1 0.0 8.066 103.08 3.0
677 1 0.0 7.345 101.859 3.0
678 1 0.0 8.043 100.624 3.0
679 1 0.0 7.322 99.403 3.0
680 1 0.0 8.019 98.168 3.0
681 1 0.0 7.299 96.947 3.0
682 1 0.0 7.996 95.713 3.0
683 1 0.0 7.275 94.491 3.0
684 1 0.0 7.973 93.257 3.0
685 1 0.0 7.252 92.035 3.0
686 1 0.0 7.95 90.801 3.0
687 1 0.0 7.229 89.58 3.0
688 1 0.0 7.926 88.345 3.0
689 1 0.0 7.206 87.124 3.0
690 1 0.0 7.903 85.889 3.0
691 1 0.0 7.183 84.668 3.0
692 1 0.0 7.88 83.433 3.0
693 1 0.0 7.159 82.212 3.0
694 1 0.0 7.857 80.977 3.0
695 1 0.0 7.136 79.756 3.0
696 1 0.0 7.833 78.521 3.0
697 1 0.0 7.113 77.3 3.0
698 1 0.0 7.81 76.065 3.0
699 1 0.0 7.09 74.844 3.0
700 1 0.0 7.787 73.61 3.0
701 1 0.0 7.066 72.388 3.0
702 1 0.0 7.764 71.154 3.0
703 1 0.0 7.043 69.932 3.0
704 1 0.0 7.74 68.698 3.0
705 1 0.0 7.02 67.477 3.0
706 1 0.0 7.717 66.242 3.0
707 1 0.0 6.997 65.021 3.0
708 1 0.0 7.694 63.786 3.0
709 1 0.0 6.973 62.565 3.0
710 1 0.0 7.671 61.33 3.0
711 1 0.0 6.95 60.109 3.0
712 1 0.0 7.647 58.874 3.0
713 1 0.0 6.927 57.653 3.0
714 1 0.0 7.624 56.418 3.0
715 1 0.0 6.904 55.197 3.0
716 1 0.0 7.601 53.962 3.0
717 1 0.0 6.88 52.741 3.0
718 1 0.0 7.578 51.507 3.0
719 1 0.0 6.857 50.285 3.0
720 1 0.0 7.554 49.051 3.0
721 1 0.0 6.834 47.829 3.0
722 1 0.0 7.531 46.595 3.0
723 1 0.0 6.811 45.374 3.0
724 1 0.0 7.508 44.139 3.0
725 1 0.0 6.787 42.918 3.0
726 1 0.0 7.485 41.683 3.0
727 1 0.0 6.764 40.462 3.0
728 1 0.0 7.461 39.227 3.0
729 1 0.0 6.741 38.006 3.0
730 1 0.0 7.438 36.771 3.0
731 1 0.0 6.718 35.55 3.0
732 1 0.0 7.415 34.315 3.0
733 1 0.0 6.694 33.094 3.0
734 1 0.0 7.392 31.859 3.0
735 1 0.0 6.671 30.638 3.0
736 1 0.0 7.368 29.404 3.0
737 1 0.0 6.648 28.182 3.0
738 1 0.0 7.345 26.948 3.0
739 1 0.0 6.625 25.726 3.0
740 1 0.0 7.322 24.492 3.0
741 1 0.0 6.601 23.271 3.0
742 1 0.0 7.299 22.036 3.0
743 1 0.0 6.578 20.815 3.0
744 1 0.0 7.275 19.58 3.0
745 1 0.0 6.555 18.359 3.0
746 1 0.0 7.252 17.124 3.0
747 1 0.0 6.532 15.903 3.0
748 1 0.0 7.229 14.668 3.0
749 1 0.0 6.508 13.447 3.0
750 1 0.0 7.206 12.212 3.0
751 1 0.0 6.485 10.991 3.0
752 1 0.0 7.183 9.756 3.0
753 1 0.0 6.462 8.535 3.0
754 1 0.0 7.159 7.301 3.0
755 1 0.0 6.439 6.079 3.0
756 1 0.0 7.136 4.845 3.0
757 1 0.0 6.415 3.623 3.0
758 1 0.0 7.113 2.389 3.0
759 1 0.0 6.392 1.168 3.0
760 1 0.0 11.343 224.627 3.0
761 1 0.0 10.623 223.405 3.0
762 1 0.0 11.32 222.171 3.0
763 1 0.0 10.599 220.95 3.0
764 1 0.0 11.297 219.715 3.0
765 1 0.0 10.576 218.494 3.0
766 1 0.0 11.274 217.259 3.0
767 1 0.0 10.553 216.038 3.0
768 1 0.0 11.25 214.803 3.0
769 1 0.0 10.53 213.582 3.0
770 1 0.0 11.227 212.347 3.0
771 1 0.0 10.506 211.126 3.0
772 1 0.0 11.204 209.891 3.0
773 1 0.0 10.483 208.67 3.0
774 1 0.0 11.181 207.435 3.0
775 1 0.0 10.46 206.214 3.0
776 1 0.0 11.157 204.98 3.0
777 1 0.0 10.437 203.758 3.0
778 1 0.0 11.134 202.524 3.0
779 1 0.0 10.413 201.302 3.0
780 1 0.0 11.111 200.068 3.0
781 1 0.0 10.39 198.847 3.0
782 1 0.0 11.088 197.612 3.0
783 1 0.0 10.367 196.391 3.0
784 1 0.0 11.064 195.156 3.0
785 1 0.0 10.344 193.935 3.0
786 1 0.0 11.041 192.7 3.0
787 1 0.0 10.321 191.479 3.0
788 1 0.0 11.018 190.244 3.0
789 1 0.0 10.297 189.023 3.0
790 1 0.0 10.995 187.788 3.0
791 1 0.0 10.274 186.567 3.0
792 1 0.0 10.971 185.332 3.0
793 1 0.0 10.251 184.111 3.0
794 1 0.0 10.948 182.877 3.0
795 1 0.0 10.228 181.655 3.0
796 1 0.0 10.925 180.421 3.0
797 1 0.0 10.204 179.199 3.0
798 1 0.0 10.902 177.965 3.0
799 1 0.0 10.181 176.744 3.0
800 1 0.0 10.878 175.509 3.0
801 1 0.0 10.158 174.288 3.0
802 1 0.0 10.855 173.053 3.0
803 1 0.0 10.135 171.832 3.0
804 1 0.0 10.832 170.597 3.0
805 1 0.0 10.111 169.376 3.0
806 1 0.0 10.809 168.141 3.0
807 1 0.0 10.088 166.92 3.0
808 1 0.0 10.785 165.685 3.0
809 1 0.0 10.065 164.464 3.0
810 1 0.0 10.762 163.229 3.0
811 1 0.0 10.042 162.008 3.0
812 1 0.0 10.739 160.774 3.0
813 1 0.0 10.018 159.552 3.0
814 1 0.0 10.716 158.318 3.0
815 1 0.0 9.995 157.096 3.0
816 1 0.0 10.692 155.862 3.0
817 1 0.0 9.972 154.641 3.0
818 1 0.0 10.669 153.406 3.0
819 1 0.0 9.949 152.185 3.0
820 1 0.0 10.646 150.95 3.0
821 1 0.0 9.925 149.729 3.0
822 1 0.0 10.623 148.494 3.0
823 1 0.0 9.902 147.273 3.0
824 1 0.0 10.599 146.038 3.0
825 1 0.0 9.879 144.817 3.0
826 1 0.0 10.576 143.582 3.0
827 1 0.0 9.856 142.361 3.0
828 1 0.0 10.553 141.126 3.0
829 1 0.0 9.832 139.905 3.0
830 1 0.0 10.53 138.671 3.0
831 1 0.0 9.809 137.449 3.0
832 1 0.0 10.506 136.215 3.0
833 1 0.0 9.786 134.993 3.0
834 1 0.0 10.483 133.759 3.0
835 1 0.0 9.763 132.538 3.0
836 1 0.0 10.46 131.303 3.0
837 1 0.0 9.739 130.082 3.0
838 1 0.0 10.437 128.847 3.0
839 1 0.0 9.716 127.626 3.0
840 1 0.0 10.413 126.391 3.0
841 1 0.0 9.693 125.17 3.0
842 1 0.0 10.39 123.935 3.0
843 1 0.0 9.67 122.714 3.0
844 1 0.0 10.367 121.479 3.0
845 1 0.0 9.646 120.258 3.0
846 1 0.0 10.344 119.023 3.0
847 1 0.0 9.623 117.802 3.0
848 1 0.0 10.321 116.568 3.0
849 1 0.0 9.6 115.346 3.0
850 1 0.0 10.297 114.112 3.0
851 1 0.0 9.577 112.89 3.0
852 1 0.0 10.274 111.656 3.0
853 1 0.0 9.553 110.435 3.0
854 1 0.0 10.251 109.2 3.0
855 1 0.0 9.53 107.979 3.0
856 1 0.0 10.228 106.744 3.0
857 1 0.0 9.507 105.523 3.0
858 1 0.0 10.204 104.288 3.0
859 1 0.0 9.484 103.067 3.0
860 1 0.0 10.181 101.832 3.0
861 1 0.0 9.46 100.611 3.0
862 1 0.0 10.158 99.376 3.0
863 1 0.0 9.437 98.155 3.0
864 1 0.0 10.135 96.92 3.0
865 1 0.0 9.414 95.699 3.0
866 1 0.0 10.111 94.465 3.0
867 1 0.0 9.391 93.243 3.0
868 1 0.0 10.088 92.009 3.0
869 1 0.0 9.367 90.787 3.0
870 1 0.0 10.065 89.553 3.0
871 1 0.0 9.344 88.332 3.0
872 1 0.0 10.042 87.097 3.0
873 1 0.0 9.321 85.876 3.0
874 1 0.0 10.018 84.641 3.0
875 1 0.0 9.298 83.42 3.0
876 1 0.0 9.995 82.185 3.0
877 1 0.0 9.275 80.964 3.0
878 1 0.0 9.972 79.729 3.0
879 1 0.0 9.251 78.508 3.0
880 1 0.0 9.949 77.273 3.0
881 1 0.0 9.228 76.052 3.0
882 1 0.0 9.925 74.817 3.0
883 1 0.0 9.205 73.596 3.0
884 1 0.0 9.902 72.362 3.0
885 1 0.0 9.182 71.14 3.0
886 1 0.0 9.879 69.906 3.0
887 1 0.0 9.158 68.684 3.0
888 1 0.0 9.856 67.45 3.0
889 1 0.0 9.135 66.229 3.0
890 1 0.0 9.832 64.994 3.0
891 1 0.0 9.112 63.773 3.0
892 1 0.0 9.809 62.538 3.0
893 1 0.0 9.089 61.317 3.0
894 1 0.0 9.786 60.082 3.0
895 1 0.0 9.065 58.861 3.0
896 1 0.0 9.763 57.626 3.0
897 1 0.0 9.042 56.405 3.0
898 1 0.0 9.739 55.17 3.0
899 1 0.0 9.019 53.949 3.0
900 1 0.0 9.716 52.714 3.0
901 1 0.0 8.996 51.493 3.0
902 1 0.0 9.693 50.259 3.0
903 1 0.0 8.972 49.037 3.0
904 1 0.0 9.67 47.803 3.0
905 1 0.0 8.949 46.581 3.0
906 1 0.0 9.646 45.347 3.0
907 1 0.0 8.926 44.125 3.0
908 1 0.0 9.623 42.891 3.0
909 1 0.0 8.903 41.67 3.0
910 1 0.0 9.6 40.435 3.0
911 1 0.0 8.879 39.214 3.0
912 1 0.0 9.577 37.979 3.0
913 1 0.0 8.856 36.758 3.0
914 1 0.0 9.553 35.523 3.0
915 1 0.0 8.833 34.302 3.0
916 1 0.0 9.53 33.067 3.0
917 1 0.0 8.81 31.846 3.0
918 1 0.0 9.507 30.611 3.0
919 1 0.0 8.786 29.39 3.0
920 1 0.0 9.484 28.156 3.0
921 1 0.0 8.763 26.934 3.0
922 1 0.0 9.46 25.7 3.0
923 1 0.0 8.74 24.478 3.0
924 1 0.0 9.437 23.244 3.0
925 1 0.0 8.717 22.022 3.0
926 1 0.0 9.414 20.788 3.0
927 1 0.0 8.693 19.567 3.0
928 1 0.0 9.391 18.332 3.0
929 1 0.0 8.67 17.111 3.0
930 1 0.0 9.367 15.876 3.0
931 1 0.0 8.647 14.655 3.0
932 1 0.0 9.344 13.42 3.0
933 1 0.0 8.624 12.199 3.0
934 1 0.0 9.321 10.964 3.0
935 1 0.0 8.6 9.743 3.0
936 1 0.0 9.298 8.508 3.0
937 1 0.0 8.577 7.287 3.0
938 1 0.0 9.275 6.052 3.0
939 1 0.0 8.554 4.831 3.0
940 1 0.0 9.251 3.597 3.0
941 1 0.0 8.531 2.375 3.0
942 1 0.0 9.228 1.141 3.0
943 1 0.0 12.761 224.613 3.0
944 1 0.0 13.459 223.379 3.0
945 1 0.0 12.738 222.157 3.0
946 1 0.0 13.435 220.923 3.0
947 1 0.0 12.715 219.702 3.0
948 1 0.0 13.412 218.467 3.0
949 1 0.0 12.691 217.246 3.0
950 1 0.0 13.389 216.011 3.0
951 1 0.0 12.668 214.79 3.0
952 1 0.0 13.366 213.555 3.0
953 1 0.0 12.645 212.334 3.0
954 1 0.0 13.342 211.099 3.0
955 1 0.0 12.622 209.878 3.0
956 1 0.0 13.319 208.643 3.0
957 1 0.0 12.598 207.422 3.0
958 1 0.0 13.296 206.187 3.0
959 1 0.0 12.575 204.966 3.0
960 1 0.0 13.273 203.732 3.0
961 1 0.0 12.552 202.51 3.0
962 1 0.0 13.249 201.276 3.0
963 1 0.0 12.529 200.054 3.0
964 1 0.0 13.226 198.82 3.0
965 1 0.0 12.505 197.598 3.0
966 1 0.0 13.203 196.364 3.0
967 1 0.0 12.482 195.143 3.0
968 1 0.0 13.18 193.908 3.0
969 1 0.0 12.459 192.687 3.0
970 1 0.0 13.156 191.452 3.0
971 1 0.0 12.436 190.231 3.0
972 1 0.0 13.133 188.996 3.0
973 1 0.0 12.413 187.775 3.0
974 1 0.0 13.11 186.54 3.0
975 1 0.0 12.389 185.319 3.0
976 1 0.0 13.087 184.084 3.0
977 1 0.0 12.366 182.863 3.0
978 1 0.0 13.063 181.628 3.0
979 1 0.0 12.343 180.407 3.0
980 1 0.0 13.04 179.173 3.0
981 1 0.0 12.32 177.951 3.0
982 1 0.0 13.017 176.717 3.0
983 1 0.0 12.296 175.495 3.0
984 1 0.0 12.994 174.261 3.0
985 1 0.0 12.273 173.04 3.0
986 1 0.0 12.97 171.805 3.0
987 1 0.0 12.25 170.584 3.0
988 1 0.0 12.947 169.349 3.0
989 1 0.0 12.227 168.128 3.0
990 1 0.0 12.924 166.893 3.0
991 1 0.0 12.203 165.672 3.0
992 1 0.0 12.901 164.437 3.0
993 1 0.0 12.18 163.216 3.0
994 1 0.0 12.877 161.981 3.0
995 1 0.0 12.157 160.76 3.0
996 1 0.0 12.854 159.525 3.0
997 1 0.0 12.134 158.304 3.0
998 1 0.0 12.831 157.07 3.0
999 1 0.0 12.11 155.848 3.0
1000 1 0.0 12.808 154.614 3.0
1001 1 0.0 12.087 153.392 3.0
1002 1 0.0 12.784 152.158 3.0
1003 1 0.0 12.064 150.937 3.0
1004 1 0.0 12.761 149.702 3.0
1005 1 0.0 12.041 148.481 3.0
1006 1 0.0 12.738 147.246 3.0
1007 1 0.0 12.017 146.025 3.0
1008 1 0.0 12.715 144.79 3.0
1009 1 0.0 11.994 143.569 3.0
1010 1 0.0 12.691 142.334 3.0
1011 1 0.0 11.971 141.113 3.0
1012 1 0.0 12.668 139.878 3.0
1013 1 0.0 11.948 138.657 3.0
1014 1 0.0 12.645 137.422 3.0
1015 1 0.0 11.924 136.201 3.0
1016 1 0.0 12.622 134.967 3.0
1017 1 0.0 11.901 133.745 3.0
1018 1 0.0 12.598 132.511 3.0
1019 1 0.0 11.878 131.289 3.0
1020 1 0.0 12.575 130.055 3.0
1021 1 0.0 11.855 128.834 3.0
1022 1 0.0 12.552 127.599 3.0
1023 1 0.0 11.831 126.378 3.0
1024 1 0.0 12.529 125.143 3.0
1025 1 0.0 11.808 123.922 3.0
1026 1 0.0 12.505 122.687 3.0
1027 1 0.0 11.785 121.466 3.0
1028 1 0.0 12.482 120.231 3.0
1029 1 0.0 11.762 119.01 3.0
1030 1 0.0 12.459 117.775 3.0
1031 1 0.0 11.738 116.554 3.0
1032 1 0.0 12.436 115.319 3.0
1033 1 0.0 11.715 114.098 3.0
1034 1 0.0 12.413 112.864 3.0
1035 1 0.0 11.692 111.642 3.0
1036 1 0.0 12.389 110.408 3.0
1037 1 0.0 11.669 109.186 3.0
1038 1 0.0 12.366 107.952 3.0
1039 1 0.0 11.645 106.731 3.0
1040 1 0.0 12.343 105.496 3.0
1041 1 0.0 11.622 104.275 3.0
1042 1 0.0 12.32 103.04 3.0
1043 1 0.0 11.599 101.819 3.0
1044 1 0.0 12.296 100.584 3.0
1045 1 0.0 11.576 99.363 3.0
1046 1 0.0 12.273 98.128 3.0
1047 1 0.0 11.552 96.907 3.0
1048 1 0.0 12.25 95.672 3.0
1049 1 0.0 11.529 94.451 3.0
1050 1 0.0 12.227 93.216 3.0
1051 1 0.0 11.506 91.995 3.0
1052 1 0.0 12.203 90.761 3.0
1053 1 0.0 11.483 89.539 3.0
1054 1 0.0 12.18 88.305 3.0
1055 1 0.0 11.459 87.083 3.0
1056 1 0.0 12.157 85.849 3.0
1057 1 0.0 11.436 84.628 3.0
1058 1 0.0 12.134 83.393 3.0
1059 1 0.0 11.413 82.172 3.0
1060 1 0.0 12.11 80.937 3.0
1061 1 0.0 11.39 79.716 3.0
1062 1 0.0 12.087 78.481 3.0
1063 1 0.0 11.367 77.26 3.0
1064 1 0.0 12.064 76.025 3.0
1065 1 0.0 11.343 74.804 3.0
1066 1 0.0 12.041 73.569 3.0
1067 1 0.0 11.32 72.348 3.0
1068 1 0.0 12.017 71.113 3.0
1069 1 0.0 11.297 69.892 3.0
1070 1 0.0 11.994 68.658 3.0
1071 1 0.0 11.274 67.436 3.0
1072 1 0.0 11.971 66.202 3.0
1073 1 0.0 11.25 64.98 3.0
1074 1 0.0 11.948 63.746 3.0
1075 1 0.0 11.227 62.525 3.0
1076 1 0.0 11.924 61.29 3.0
1077 1 0.0 11.204 60.069 3.0
1078 1 0.0 11.901 58.834 3.0
1079 1 0.0 11.181 57.613 3.0
1080 1 0.0 11.878 56.378 3.0
1081 1 0.0 11.157 55.157 3.0
1082 1 0.0 11.855 53.922 3.0
1083 1 0.0 11.134 52.701 3.0
1084 1 0.0 11.831 51.466 3.0